  Input file(s): test_H.input.xml 

=====================================================
                    QMCPACK 3.7.9

       (c) Copyright 2003-  QMCPACK developers

                    Please cite:
 J. Kim et al. J. Phys. Cond. Mat. 30 195901 (2018)
      https://doi.org/10.1088/1361-648X/aab9c3

  Git branch: QMCQEPack
  Last git commit: 5c7c0a37da35c199fc7d7e36f528fc8479a3da50
  Last git commit date: Wed Jul 17 19:57:25 2019 +0200
  Last git commit subject: QE patch update
=====================================================
  Global options 

  Total number of MPI ranks = 1
  Number of MPI groups      = 1
  MPI group ID              = 0
  Number of ranks in group  = 1
  MPI ranks per node        = 1
  OMP 1st level threads     = 4
  OMP nested threading disabled or only 1 thread on the 2nd level

  Precision used in this calculation, see definitions in the manual:
  Base precision      = double
  Full precision      = double

  Structure-of-arrays (SoA) optimization enabled

  Input XML = test_H.input.xml

  Project = test_H
  date    = 2019-07-18 16:05:11 CEST
  host    = mdlspc78

 Random Number
 -------------
  Offset for the random number seeds from input file (mod 1024): 2

  Range of prime numbers to use as seeds over processors and threads = 7-19


 Lattice
 -------
  Simulation cell radius   = 5.000000 bohr
  Wigner-Seitz cell radius = 5.000000 bohr

  Lattice (bohr):     10.0000000000      0.0000000000      0.0000000000
                       0.0000000000     10.0000000000      0.0000000000
                       0.0000000000      0.0000000000     10.0000000000

  Boundary Conditions:  p  p  p 

  Volume (bohr^3) = 1000.0000000000

  Reciprocal vectors without 2*pi.
    g_1 =       0.1000000000      0.0000000000      0.0000000000
    g_2 =       0.0000000000      0.1000000000      0.0000000000
    g_3 =       0.0000000000      0.0000000000      0.1000000000

  Metric tensor in real-space.
    h_1 = 100.0000000000 0.0000000000 0.0000000000 
    h_2 = 0.0000000000 100.0000000000 0.0000000000 
    h_3 = 0.0000000000 0.0000000000 100.0000000000 

  Metric tensor in g-space.
    h_1 = 0.3947841760 0.0000000000 0.0000000000 
    h_2 = 0.0000000000 0.3947841760 0.0000000000 
    h_3 = 0.0000000000 0.0000000000 0.3947841760 
 Particle Set 
 ------------
  Name: ion0
  Initializing the lattice by the global supercell
  All the species have the same mass 1.0000000000
  Long-range breakup parameters:
    rc*kc = 15.0000000000; rc = 5.0000000000; kc = 3.0000000000

  Creating Structure Factor for periodic systems 3.0000000000
  KContainer initialised with cutoff 3.0000000000
   # of K-shell  = 21
   # of K points = 460

  Particle set size: 4

 Particle Set 
 ------------
  Name: e
  Initializing the lattice by the global supercell
  All the species have the same mass 1.0000000000
  Long-range breakup parameters:
    rc*kc = 15.0000000000; rc = 5.0000000000; kc = 3.0000000000

  Creating Structure Factor for periodic systems 3.0000000000
  KContainer initialised with cutoff 3.0000000000
   # of K-shell  = 21
   # of K points = 460

  Particle set size: 4

WaveFunctionFactory::setInterface: intfc=0
WaveFunctionFactory::setInterface: interface=0
 Wavefunction setup: 
 ------------------- 
  Name: psi0
  Created SPOSet builder named 'interface' of type interface
Reuse SPOSetBuilder "interface" type interface
  Building SPOSet '' with '' basis set.
  TileMatrix = 
 [  1  0  0
    0  1  0
    0  0  1 ]
  Generating 2 orbitals from Quantum Espresso file.
ESPWSCFInterface::initialize().  initialized=0
 ESPWSCFInterface::initialize() commID = 1
 MPI_WORLD_COMM = 0x561fdc076380
 pwlib is initialized 
 mp_startup done

     Program PWSCF v.5.3.0 starts on 18Jul2019 at 16: 5:11 

     This program is part of the open-source Quantum ESPRESSO suite
     for quantum simulation of materials; please cite
         "P. Giannozzi et al., J. Phys.:Condens. Matter 21 395502 (2009);
          URL http://www.quantum-espresso.org", 
     in publications or presentations arising from this work. More details at
     http://www.quantum-espresso.org/quote

     Parallel version (MPI), running on     1 processors
 environment_start done
     Reading input from QMCQEPack.scf.in
     Message from routine read_cards :
     DEPRECATED: no units specified in CELL_PARAMETERS card
 input file read

     Current dimensions of program PWSCF are:
     Max number of different atomic species (ntypx) = 10
     Max number of k-points (npk) =  40000
     Max angular momentum in pseudopotentials (lmaxx) =  3
 Allocating tau now!

     IMPORTANT: XC functional enforced from input :
     Exchange-correlation      = PBE ( 1  4  3  4 0 0)
     Any further DFT definition will be discarded
     Please, verify this is what you really want


     Subspace diagonalization in iterative solution of the eigenvalue problem:
     a serial algorithm will be used

     Found symmetry operation: I + (  0.5000  0.0000  0.0000)
     This is a supercell, fractional translations are disabled

     G-vector sticks info
     --------------------
     sticks:   dense  smooth     PW     G-vecs:    dense   smooth      PW
     Sum         641     641    185                12053    12053    1935



     bravais-lattice index     =            0
     lattice parameter (alat)  =       1.0000  a.u.
     unit-cell volume          =    1000.0000 (a.u.)^3
     number of atoms/cell      =            4
     number of atomic types    =            1
     number of electrons       =         4.00
     number of Kohn-Sham states=            3
     kinetic-energy cutoff     =      20.0000  Ry
     charge density cutoff     =      80.0000  Ry
     convergence threshold     =      1.0E-04
     mixing beta               =       0.7000
     number of iterations used =            8  plain     mixing
     Exchange-correlation      = PBE ( 1  4  3  4 0 0)

     celldm(1)=   1.000000  celldm(2)=   0.000000  celldm(3)=   0.000000
     celldm(4)=   0.000000  celldm(5)=   0.000000  celldm(6)=   0.000000

     crystal axes: (cart. coord. in units of alat)
               a(1) = (  10.000000   0.000000   0.000000 )  
               a(2) = (   0.000000  10.000000   0.000000 )  
               a(3) = (   0.000000   0.000000  10.000000 )  

     reciprocal axes: (cart. coord. in units 2 pi/alat)
               b(1) = (  0.100000  0.000000  0.000000 )  
               b(2) = (  0.000000  0.100000  0.000000 )  
               b(3) = (  0.000000  0.000000  0.100000 )  


     PseudoPot. # 1 for H  read from file:
     ./H_coul.UPF
     MD5 check sum: 9d3c06b7049092448a1d6b030b5b322d
     Pseudo is Norm-conserving, Zval =  1.0
     Generated by new atomic code, or converted to UPF format
     Using radial grid of 1451 points,  0 beta functions with: 

     atomic species   valence    mass     pseudopotential
        H              1.00     1.00000     H ( 1.00)

     No symmetry found



   Cartesian axes

     site n.     atom                  positions (alat units)
         1           H   tau(   1) = (   2.5000000   2.5000000   0.0000000  )
         2           H   tau(   2) = (  -2.5000000   2.5000000   0.0000000  )
         3           H   tau(   3) = (  -2.5000000  -2.5000000   0.0000000  )
         4           H   tau(   4) = (   2.5000000  -2.5000000   0.0000000  )

     number of k points=    32  Fermi-Dirac smearing, width (Ry)=  0.0063
                       cart. coord. in units 2pi/alat
        k(    1) = (   0.0125000   0.0125000   0.0125000), wk =   0.0625000
        k(    2) = (   0.0125000   0.0125000   0.0375000), wk =   0.0625000
        k(    3) = (   0.0125000   0.0125000  -0.0375000), wk =   0.0625000
        k(    4) = (   0.0125000   0.0125000  -0.0125000), wk =   0.0625000
        k(    5) = (   0.0125000   0.0375000   0.0125000), wk =   0.0625000
        k(    6) = (   0.0125000   0.0375000   0.0375000), wk =   0.0625000
        k(    7) = (   0.0125000   0.0375000  -0.0375000), wk =   0.0625000
        k(    8) = (   0.0125000   0.0375000  -0.0125000), wk =   0.0625000
        k(    9) = (   0.0125000  -0.0375000   0.0125000), wk =   0.0625000
        k(   10) = (   0.0125000  -0.0375000   0.0375000), wk =   0.0625000
        k(   11) = (   0.0125000  -0.0375000  -0.0375000), wk =   0.0625000
        k(   12) = (   0.0125000  -0.0375000  -0.0125000), wk =   0.0625000
        k(   13) = (   0.0125000  -0.0125000   0.0125000), wk =   0.0625000
        k(   14) = (   0.0125000  -0.0125000   0.0375000), wk =   0.0625000
        k(   15) = (   0.0125000  -0.0125000  -0.0375000), wk =   0.0625000
        k(   16) = (   0.0125000  -0.0125000  -0.0125000), wk =   0.0625000
        k(   17) = (   0.0375000   0.0125000   0.0125000), wk =   0.0625000
        k(   18) = (   0.0375000   0.0125000   0.0375000), wk =   0.0625000
        k(   19) = (   0.0375000   0.0125000  -0.0375000), wk =   0.0625000
        k(   20) = (   0.0375000   0.0125000  -0.0125000), wk =   0.0625000
        k(   21) = (   0.0375000   0.0375000   0.0125000), wk =   0.0625000
        k(   22) = (   0.0375000   0.0375000   0.0375000), wk =   0.0625000
        k(   23) = (   0.0375000   0.0375000  -0.0375000), wk =   0.0625000
        k(   24) = (   0.0375000   0.0375000  -0.0125000), wk =   0.0625000
        k(   25) = (   0.0375000  -0.0375000   0.0125000), wk =   0.0625000
        k(   26) = (   0.0375000  -0.0375000   0.0375000), wk =   0.0625000
        k(   27) = (   0.0375000  -0.0375000  -0.0375000), wk =   0.0625000
        k(   28) = (   0.0375000  -0.0375000  -0.0125000), wk =   0.0625000
        k(   29) = (   0.0375000  -0.0125000   0.0125000), wk =   0.0625000
        k(   30) = (   0.0375000  -0.0125000   0.0375000), wk =   0.0625000
        k(   31) = (   0.0375000  -0.0125000  -0.0375000), wk =   0.0625000
        k(   32) = (   0.0375000  -0.0125000  -0.0125000), wk =   0.0625000

     Dense  grid:    12053 G-vectors     FFT dimensions: (  30,  30,  30)

     Largest allocated arrays     est. size (Mb)     dimensions
        Kohn-Sham Wavefunctions         0.07 Mb     (    1510,    3)
        NL pseudopotentials             0.00 Mb     (    1510,    0)
        Each V/rho on FFT grid          0.41 Mb     (   27000)
        Each G-vector array             0.09 Mb     (   12053)
        G-vector shells                 0.00 Mb     (     171)
     Largest temporary arrays     est. size (Mb)     dimensions
        Auxiliary wavefunctions         0.28 Mb     (    1510,   12)
        Each subspace H/S matrix        0.00 Mb     (      12,   12)
        Each <psi_i|beta_j> matrix      0.00 Mb     (       0,    3)
        Arrays for rho mixing           3.30 Mb     (   27000,    8)

     Initial potential from superposition of free atoms
     Check: negative starting charge=   -0.001638

     starting charge    3.99996, renormalised to    4.00000

     negative rho (up, down):  1.638E-03 0.000E+00
     Starting wfc are random

     total cpu time spent up to now is        0.3 secs

     per-process dynamical memory:    11.0 Mb

     Self-consistent Calculation

     iteration #  1     ecut=    20.00 Ry     beta=0.70
     Davidson diagonalization with overlap
     ethr =  1.00E-02,  avg # of iterations =  8.4

     Threshold (ethr) on eigenvalues was too large:
     Diagonalizing with lowered threshold

     Davidson diagonalization with overlap
     ethr =  3.47E-04,  avg # of iterations =  3.5

     negative rho (up, down):  7.172E-06 0.000E+00

     total cpu time spent up to now is        2.4 secs

     total energy              =      -3.80898259 Ry
     Harris-Foulkes estimate   =      -3.80625409 Ry
     estimated scf accuracy    <       0.01344832 Ry

     iteration #  2     ecut=    20.00 Ry     beta=0.70
     Davidson diagonalization with overlap
     ethr =  3.36E-04,  avg # of iterations =  1.0

     total cpu time spent up to now is        2.8 secs

     total energy              =      -3.81060330 Ry
     Harris-Foulkes estimate   =      -3.80959630 Ry
     estimated scf accuracy    <       0.00072401 Ry

     iteration #  3     ecut=    20.00 Ry     beta=0.70
     Davidson diagonalization with overlap
     ethr =  1.81E-05,  avg # of iterations =  2.3

     total cpu time spent up to now is        3.3 secs

     total energy              =      -3.81069680 Ry
     Harris-Foulkes estimate   =      -3.81075997 Ry
     estimated scf accuracy    <       0.00025488 Ry

     iteration #  4     ecut=    20.00 Ry     beta=0.70
     Davidson diagonalization with overlap
     ethr =  6.37E-06,  avg # of iterations =  1.2

     total cpu time spent up to now is        3.7 secs

     End of self-consistent calculation

          k = 0.0125 0.0125 0.0125 (  1484 PWs)   bands (ev):

    -7.6657  -5.4447  -5.4324

          k = 0.0125 0.0125 0.0375 (  1510 PWs)   bands (ev):

    -7.6182  -5.4277  -5.4153

          k = 0.0125 0.0125-0.0375 (  1510 PWs)   bands (ev):

    -7.6182  -5.4277  -5.4153

          k = 0.0125 0.0125-0.0125 (  1484 PWs)   bands (ev):

    -7.6657  -5.4447  -5.4324

          k = 0.0125 0.0375 0.0125 (  1510 PWs)   bands (ev):

    -7.1701  -6.2951  -5.0141

          k = 0.0125 0.0375 0.0375 (  1508 PWs)   bands (ev):

    -7.1262  -6.2587  -4.9922

          k = 0.0125 0.0375-0.0375 (  1508 PWs)   bands (ev):

    -7.1262  -6.2587  -4.9923

          k = 0.0125 0.0375-0.0125 (  1510 PWs)   bands (ev):

    -7.1701  -6.2950  -5.0140

          k = 0.0125-0.0375 0.0125 (  1510 PWs)   bands (ev):

    -7.1701  -6.2951  -5.0141

          k = 0.0125-0.0375 0.0375 (  1508 PWs)   bands (ev):

    -7.1262  -6.2587  -4.9923

          k = 0.0125-0.0375-0.0375 (  1508 PWs)   bands (ev):

    -7.1262  -6.2587  -4.9922

          k = 0.0125-0.0375-0.0125 (  1510 PWs)   bands (ev):

    -7.1701  -6.2951  -5.0140

          k = 0.0125-0.0125 0.0125 (  1484 PWs)   bands (ev):

    -7.6657  -5.4447  -5.4324

          k = 0.0125-0.0125 0.0375 (  1510 PWs)   bands (ev):

    -7.6182  -5.4277  -5.4153

          k = 0.0125-0.0125-0.0375 (  1510 PWs)   bands (ev):

    -7.6182  -5.4277  -5.4153

          k = 0.0125-0.0125-0.0125 (  1484 PWs)   bands (ev):

    -7.6657  -5.4447  -5.4324

          k = 0.0375 0.0125 0.0125 (  1510 PWs)   bands (ev):

    -7.1701  -6.2950  -5.0140

          k = 0.0375 0.0125 0.0375 (  1508 PWs)   bands (ev):

    -7.1262  -6.2587  -4.9922

          k = 0.0375 0.0125-0.0375 (  1508 PWs)   bands (ev):

    -7.1262  -6.2587  -4.9923

          k = 0.0375 0.0125-0.0125 (  1510 PWs)   bands (ev):

    -7.1701  -6.2950  -5.0141

          k = 0.0375 0.0375 0.0125 (  1508 PWs)   bands (ev):

    -6.6832  -5.8353  -5.8240

          k = 0.0375 0.0375 0.0375 (  1505 PWs)   bands (ev):

    -6.6405  -5.8026  -5.7912

          k = 0.0375 0.0375-0.0375 (  1505 PWs)   bands (ev):

    -6.6405  -5.8026  -5.7912

          k = 0.0375 0.0375-0.0125 (  1508 PWs)   bands (ev):

    -6.6832  -5.8353  -5.8240

          k = 0.0375-0.0375 0.0125 (  1508 PWs)   bands (ev):

    -6.6832  -5.8353  -5.8240

          k = 0.0375-0.0375 0.0375 (  1505 PWs)   bands (ev):

    -6.6405  -5.8026  -5.7912

          k = 0.0375-0.0375-0.0375 (  1505 PWs)   bands (ev):

    -6.6405  -5.8026  -5.7912

          k = 0.0375-0.0375-0.0125 (  1508 PWs)   bands (ev):

    -6.6832  -5.8353  -5.8240

          k = 0.0375-0.0125 0.0125 (  1510 PWs)   bands (ev):

    -7.1701  -6.2950  -5.0141

          k = 0.0375-0.0125 0.0375 (  1508 PWs)   bands (ev):

    -7.1262  -6.2587  -4.9923

          k = 0.0375-0.0125-0.0375 (  1508 PWs)   bands (ev):

    -7.1262  -6.2587  -4.9923

          k = 0.0375-0.0125-0.0125 (  1510 PWs)   bands (ev):

    -7.1701  -6.2950  -5.0141

     the Fermi energy is    -5.6213 ev

!    total energy              =      -3.81072442 Ry
     Harris-Foulkes estimate   =      -3.81074763 Ry
     estimated scf accuracy    <       0.00005562 Ry

     The total energy is the sum of the following terms:

     one-electron contribution =      -1.42058990 Ry
     hartree contribution      =       0.96540937 Ry
     xc contribution           =      -1.90673915 Ry
     ewald contribution        =      -1.44467346 Ry
     smearing contrib. (-TS)   =      -0.00413128 Ry

     convergence has been achieved in   4 iterations
  USING PWINTERFACE:  PW version 5.1.3   Lattice = 
    [ 10.000000  0.000000  0.000000
       0.000000 10.000000  0.000000
       0.000000  0.000000 10.000000 ]
  SuperLattice = 
    [ 10.000000  0.000000  0.000000
       0.000000 10.000000  0.000000
       0.000000  0.000000 10.000000 ]
bands=3, elecs=4, spins=1, twists=32, muffin tins=0, core states=0
atomic orbital=0
Species ID's
In ESPWSCFInterface::getSpeciesIDs; number of atoms:	4, number of species:	1
After pwlib_getatom_data_; number of atoms:	4, number of species:	1
atom 0  species 0
atom 1  species 0
atom 2  species 0
atom 3  species 0
#Species: 1
speciesids: 0
Get Atomic Numbers...  In getAtomicNumbers, checking nat and nsp (as above)	4   1
Initialized arrays before pwlib_getspecies_data_	1 -1  -0.5000000000 3 0
After pwlib_getspecies_data_:	1 1  1.0000000000 1 H
Done!
speciesids: 0	1
get Ion Positions
0	2.5000000000	2.5000000000	0.0000000000
1	-2.5000000000	2.5000000000	0.0000000000
2	-2.5000000000	-2.5000000000	0.0000000000
3	2.5000000000	-2.5000000000	0.0000000000
calling getwfn_kpoints... I have 32 kpoints
Done!
   Skip initialization of the density
Found 32 distinct supercell twists.
number of things
32
0
Super twist #0:  [   0.12500   0.12500   0.12500 ]
Super twist #1:  [   0.12500   0.12500   0.37500 ]
Super twist #2:  [   0.12500   0.12500  -0.37500 ]
Super twist #3:  [   0.12500   0.12500  -0.12500 ]
Super twist #4:  [   0.12500   0.37500   0.12500 ]
Super twist #5:  [   0.12500   0.37500   0.37500 ]
Super twist #6:  [   0.12500   0.37500  -0.37500 ]
Super twist #7:  [   0.12500   0.37500  -0.12500 ]
Super twist #8:  [   0.12500  -0.37500   0.12500 ]
Super twist #9:  [   0.12500  -0.37500   0.37500 ]
Super twist #10:  [   0.12500  -0.37500  -0.37500 ]
Super twist #11:  [   0.12500  -0.37500  -0.12500 ]
Super twist #12:  [   0.12500  -0.12500   0.12500 ]
Super twist #13:  [   0.12500  -0.12500   0.37500 ]
Super twist #14:  [   0.12500  -0.12500  -0.37500 ]
Super twist #15:  [   0.12500  -0.12500  -0.12500 ]
Super twist #16:  [   0.37500   0.12500   0.12500 ]
Super twist #17:  [   0.37500   0.12500   0.37500 ]
Super twist #18:  [   0.37500   0.12500  -0.37500 ]
Super twist #19:  [   0.37500   0.12500  -0.12500 ]
Super twist #20:  [   0.37500   0.37500   0.12500 ]
Super twist #21:  [   0.37500   0.37500   0.37500 ]
Super twist #22:  [   0.37500   0.37500  -0.37500 ]
Super twist #23:  [   0.37500   0.37500  -0.12500 ]
Super twist #24:  [   0.37500  -0.37500   0.12500 ]
Super twist #25:  [   0.37500  -0.37500   0.37500 ]
Super twist #26:  [   0.37500  -0.37500  -0.37500 ]
Super twist #27:  [   0.37500  -0.37500  -0.12500 ]
Super twist #28:  [   0.37500  -0.12500   0.12500 ]
Super twist #29:  [   0.37500  -0.12500   0.37500 ]
Super twist #30:  [   0.37500  -0.12500  -0.37500 ]
Super twist #31:  [   0.37500  -0.12500  -0.12500 ]
  Using supercell twist 0:  [   0.12500   0.12500   0.12500]
DistincTwists.size()=1 in OccupyBandsInterface
 spin=0 sortBands=1 numOrbs=2
Doop
DistinctTwist[ti]=0 0
Sorting the bands now:
We will read 2 distinct orbitals.
There are 0 core states and 2 valence states.
BandInfoGroup::selectBands bigspace has 3 distinct orbitals 
BandInfoGroup::selectBands using distinct orbitals [0,2)
  Number of distinct bands 2
  First Band index 0
  First SPO index 0
  Size of SPOs 2
  AdoptorName = SplineC2CSoAAdoptor
  Using complex einspline table
  Can use SoA implementation for mGL
NumDistinctOrbitals 2 numOrbs = 2
  PWSCF::Version                  0                 0                 0
  Assumes distinct Gvecs set for different twists. Regenerate orbital files using updated QE.
B-spline mesh factor is 1.0000000000
B-spline mesh size is (28, 28, 28)
Maxmimum number of Gvecs 1774
  Using meshsize=                28                28                28
  vs input meshsize=                28                28                28
MEMORY 0 MB allocated for the coefficients in 3D spline orbital representation
Start transforming plane waves to 3D B-Splines.
Made it into ESPWSSCF Interface. 1774 0 0 0
ngtot=1774
The complex coefficient cG[0] is 	(0.6377832359,-0.4003944009)
Made it into ESPWSSCF Interface. 1774 0 1 0
ngtot=1774
The complex coefficient cG[0] is 	(-0.0001405938,0.0000692370)
  SplineAdoptorReader initialize_spline_pio 0.1179688490 sec
Time spent in creating B-spline SPOs 0.1204926720sec
Reuse SPOSetBuilder "interface" type interface
  Building SPOSet '' with '' basis set.
SPOSet parameters match in EinsplineSetBuilder:  cloning EinsplineSet object.
  Creating a determinant updet group=0 sposet=updet
  Reusing a SPO set updet
Using DiracDeterminant with DelayedUpdate engine
Using rank-1 Sherman-Morrison Fahy update

  Creating a determinant downdet group=1 sposet=downdet
  Reusing a SPO set downdet
Using DiracDeterminant with DelayedUpdate engine
Using rank-1 Sherman-Morrison Fahy update

  FermionWF = SlaterDet

   Jastrow
   -------
    Name: J2   Type: Two-Body   Function: Bspline

    Radial function for species: u - u
    Jastrow cutoff unspecified.  Setting to Wigner-Seitz radius = 5.0000000000

     Number of parameters: 8
     Cusp: -0.2500000000
     Cutoff radius: 5.0000000000

     Name                        Value Type Recompute Use Index
     ---- ---------------------------- ---- --------- --- -----
     uu_0  (0.000000e+00,0.000000e+00)    1         1  ON     0
     uu_1  (0.000000e+00,0.000000e+00)    1         1  ON     1
     uu_2  (0.000000e+00,0.000000e+00)    1         1  ON     2
     uu_3  (0.000000e+00,0.000000e+00)    1         1  ON     3
     uu_4  (0.000000e+00,0.000000e+00)    1         1  ON     4
     uu_5  (0.000000e+00,0.000000e+00)    1         1  ON     5
     uu_6  (0.000000e+00,0.000000e+00)    1         1  ON     6
     uu_7  (0.000000e+00,0.000000e+00)    1         1  ON     7

    Radial function for species: u - d
    Jastrow cutoff unspecified.  Setting to Wigner-Seitz radius = 5

     Number of parameters: 8
     Cusp: -0.5
     Cutoff radius: 5

     Name                        Value Type Recompute Use Index
     ---- ---------------------------- ---- --------- --- -----
     ud_0  (0.000000e+00,0.000000e+00)    1         1  ON     0
     ud_1  (0.000000e+00,0.000000e+00)    1         1  ON     1
     ud_2  (0.000000e+00,0.000000e+00)    1         1  ON     2
     ud_3  (0.000000e+00,0.000000e+00)    1         1  ON     3
     ud_4  (0.000000e+00,0.000000e+00)    1         1  ON     4
     ud_5  (0.000000e+00,0.000000e+00)    1         1  ON     5
     ud_6  (0.000000e+00,0.000000e+00)    1         1  ON     6
     ud_7  (0.000000e+00,0.000000e+00)    1         1  ON     7


   Jastrow
   -------
    Name: J1   Type: One-Body   Function: Bspline

    Radial function for element: H
    Jastrow cutoff unspecified.  Setting to Wigner-Seitz radius = 5

     Number of parameters: 8
     Cusp: 0
     Cutoff radius: 5

     Name                        Value Type Recompute Use Index
     ---- ---------------------------- ---- --------- --- -----
     eH_0  (0.000000e+00,0.000000e+00)    1         1  ON     0
     eH_1  (0.000000e+00,0.000000e+00)    1         1  ON     1
     eH_2  (0.000000e+00,0.000000e+00)    1         1  ON     2
     eH_3  (0.000000e+00,0.000000e+00)    1         1  ON     3
     eH_4  (0.000000e+00,0.000000e+00)    1         1  ON     4
     eH_5  (0.000000e+00,0.000000e+00)    1         1  ON     5
     eH_6  (0.000000e+00,0.000000e+00)    1         1  ON     6
     eH_7  (0.000000e+00,0.000000e+00)    1         1  ON     7

  QMCHamiltonian::addOperator Kinetic to H, physical Hamiltonian 

  Creating CoulombHandler with the optimal breakup. 
  KContainer initialised with cutoff 18.8496
   # of K-shell  = 753
   # of K points = 113052

  NUMBER OF OPT_BREAK KVECS = 29180498365
 finding kc:  3 , -1
  LRBreakp parameter Kc =3
    Continuum approximation in k = [18.8496,1200)

   LR Breakup chi^2 = 2.11949e-16
   PBCAA self-interaction term -1.2258
   PBCAA total constant -1.3068
  Maximum K shell 20
  Number of k vectors 460
  Fixed Coulomb potential for ion0
    e-e Madelung Const. =-0.1368
    Vtot     =-0.72234
  QMCHamiltonian::addOperator IonIon to H, physical Hamiltonian 
QMCHamiltonian::addOperatorType added type coulomb named IonIon
  Clone CoulombHandler. 
   Constant of PBCAB -0.162
  Rcut                5
  Maximum K shell     20
  Number of k vectors 460
  QMCHamiltonian::addOperator ElecIon to H, physical Hamiltonian 
QMCHamiltonian::addOperatorType added type coulomb named ElecIon
  Clone CoulombHandler. 
   PBCAA self-interaction term -1.2258
   PBCAA total constant -1.3068
  Maximum K shell 20
  Number of k vectors 460
  Fixed Coulomb potential for e
    e-e Madelung Const. =-0.1368
    Vtot     =0
  QMCHamiltonian::addOperator ElecElec to H, physical Hamiltonian 
QMCHamiltonian::addOperatorType added type coulomb named ElecElec

  QMCHamiltonian::add2WalkerProperty added
    4 to P::PropertyList 
    0 to P::Collectables 
    starting Index of the observables in P::PropertyList = 9
ParticleSetPool::randomize 
<init source="ion0" target="e">
</init>
  Initialization Execution time = 4.648 secs
=========================================================
 Summary of QMC systems 
=========================================================
ParticleSetPool has: 

  ParticleSet 'e' contains 4 particles :  u(2) d(2)

    u  2.5010365806e+00  2.2550631347e+00  8.4188596338e+00
    u  6.6390705624e+00  8.5462412854e+00  9.1490125288e+00
    d  7.9117432861e+00  2.8702394157e+00  1.5011296551e+00
    d  3.0371303558e+00  7.6669555761e+00  8.5021292391e+00

  Distance table for dissimilar particles (A-B):
    source: ion0  target: e
    Using structure-of-arrays (SoA) data layout
    Distance computations use orthorhombic periodic cell in 3D.

  Distance table for similar particles (A-A):
    source/target: e
    Using structure-of-arrays (SoA) data layout
    Distance computations use orthorhombic periodic cell in 3D.


  ParticleSet 'ion0' contains 4 particles :  H(4)

    H  2.5000000000e+00  2.5000000000e+00  0.0000000000e+00
    H  7.5000000000e+00  2.5000000000e+00  0.0000000000e+00
    H  7.5000000000e+00  7.5000000000e+00  0.0000000000e+00
    H  2.5000000000e+00  7.5000000000e+00  0.0000000000e+00

  Distance table for similar particles (A-A):
    source/target: ion0
    Using structure-of-arrays (SoA) data layout
    Distance computations use orthorhombic periodic cell in 3D.


  Hamiltonian h0
  Kinetic         Kinetic energy
  IonIon          CoulombPBCAA potential: ion0_ion0
  ElecIon         CoulombPBCAB potential source: e
  ElecElec        CoulombPBCAA potential: e_e


=========================================================
  Start VMC
  File Root test_H.s000 append = no 
=========================================================
  Adding 4 walkers to 0 existing sets
  Total number of walkers: 4.0000000000e+00
  Total weight: 4.0000000000e+00
  Resetting Properties of the walkers 1 x 13

<vmc function="put">
  qmc_counter=0  my_counter=0
  time step      = 1.5000000000e+00
  blocks         = 100
  steps          = 100
  substeps       = 1
  current        = 0
  target samples = 0.0000000000e+00
  walkers/mpi    = 4

  stepsbetweensamples = 10100
<parameter name="blocks" condition="int">100</parameter>
<parameter name="blocks_between_recompute" condition="int">0</parameter>
<parameter name="check_properties" condition="int">100</parameter>
<parameter name="checkproperties" condition="int">100</parameter>
<parameter name="current" condition="int">0</parameter>
<parameter name="dmcwalkersperthread" condition="real">0.0000000000e+00</parameter>
<parameter name="maxcpusecs" condition="real">3.6000000000e+05</parameter>
<parameter name="record_configs" condition="int">0</parameter>
<parameter name="record_walkers" condition="int">10100</parameter>
<parameter name="recordconfigs" condition="int">0</parameter>
<parameter name="recordwalkers" condition="int">10100</parameter>
<parameter name="rewind" condition="int">0</parameter>
<parameter name="samples" condition="real">0.0000000000e+00</parameter>
<parameter name="samplesperthread" condition="real">0.0000000000e+00</parameter>
<parameter name="steps" condition="int">100</parameter>
<parameter name="stepsbetweensamples" condition="int">10100</parameter>
<parameter name="store_configs" condition="int">0</parameter>
<parameter name="storeconfigs" condition="int">0</parameter>
<parameter name="sub_steps" condition="int">1</parameter>
<parameter name="substeps" condition="int">1</parameter>
<parameter name="tau" condition="au">1.5000000000e+00</parameter>
<parameter name="time_step" condition="au">1.5000000000e+00</parameter>
<parameter name="timestep" condition="au">1.5000000000e+00</parameter>
<parameter name="use_drift" condition="string">yes</parameter>
<parameter name="usedrift" condition="string">yes</parameter>
<parameter name="walkers" condition="int">4</parameter>
<parameter name="warmup_steps" condition="int">100</parameter>
<parameter name="warmupsteps" condition="int">100</parameter>
  DumpConfig==false Nothing (configurations, state) will be saved.
  Walker Samples are dumped every 10100 steps.
</vmc>
  Set drift_modifier UNR parameter a = 1.0000000000e+00
  Adding a default LocalEnergyEstimator for the MainEstimator 
  CloneManager::makeClones makes 4 clones for W/Psi/H.
  Cloning methods for both Psi and H are used
===== Memory Usage before cloning =====
Available memory on node 0, free + buffers : 2013 MB
Memory footprint by rank 0 on node 0       : 52 MB
==================================================
===== Memory Usage after cloning =====
Available memory on node 0, free + buffers : 2013 MB
Memory footprint by rank 0 on node 0       : 52 MB
==================================================
  Initial partition of walkers 0 1 2 3 4 

  Using Particle by Particle moves
  Walker moves with drift
  Total Sample Size   =0
  Walker distribution on root = 0 1 2 3 4 
===== Memory Usage after the buffer registration =====
Available memory on node 0, free + buffers : 2013 MB
Memory footprint by rank 0 on node 0       : 52 MB
==================================================
  Anonymous Buffer size per walker : 1536 Bytes.
MEMORY increase 0 MB VMC::resetRun
====================================================
  SimpleFixedNodeBranch::finalize after a VMC block
    QMC counter        = 0
    time step          = 1.5
    reference energy   = 0.904115
    reference variance = 0.858417
====================================================
  QMC Execution time = 4.0317e+00 secs
  Total Execution time = 4.0332e+00 secs

=========================================================
  A new xml input file : test_H.s000.cont.xml

     Writing output data file H.save
 b4 getwfn_info...
 rank =            0
 nktot =           32
 ----------------
 ngtot =         1774
 npw   =         1510
 npwx  =         1510
 ----------------
 asdasda   1.0000000000000000        1.0000000000000000                1 H  
