  Input file(s): test_O.input.xml 

=====================================================
                    QMCPACK 3.7.9

       (c) Copyright 2003-  QMCPACK developers

                    Please cite:
 J. Kim et al. J. Phys. Cond. Mat. 30 195901 (2018)
      https://doi.org/10.1088/1361-648X/aab9c3

  Git branch: QMCQEPack
  Last git commit: 5c7c0a37da35c199fc7d7e36f528fc8479a3da50
  Last git commit date: Wed Jul 17 19:57:25 2019 +0200
  Last git commit subject: QE patch update
=====================================================
  Global options 

  Total number of MPI ranks = 1
  Number of MPI groups      = 1
  MPI group ID              = 0
  Number of ranks in group  = 1
  MPI ranks per node        = 1
  OMP 1st level threads     = 4
  OMP nested threading disabled or only 1 thread on the 2nd level

  Precision used in this calculation, see definitions in the manual:
  Base precision      = double
  Full precision      = double

  Structure-of-arrays (SoA) optimization enabled

  Input XML = test_O.input.xml

  Project = test_O
  date    = 2019-07-18 16:04:39 CEST
  host    = mdlspc78

 Random Number
 -------------
  Offset for the random number seeds from input file (mod 1024): 2

  Range of prime numbers to use as seeds over processors and threads = 7-19


 Lattice
 -------
  Simulation cell radius   = 9.448631 bohr
  Wigner-Seitz cell radius = 9.448631 bohr

  Lattice (bohr):     18.8972613300      0.0000000000      0.0000000000
                       0.0000000000     18.8972613300      0.0000000000
                       0.0000000000      0.0000000000     18.8972613300

  Boundary Conditions:  n  n  n 

  Volume (bohr^3) = 6748.3345843151

  Reciprocal vectors without 2*pi.
    g_1 =       0.0529177209      0.0000000000      0.0000000000
    g_2 =       0.0000000000      0.0529177209      0.0000000000
    g_3 =       0.0000000000      0.0000000000      0.0529177209

  Metric tensor in real-space.
    h_1 = 357.1064857743 0.0000000000 0.0000000000 
    h_2 = 0.0000000000 357.1064857743 0.0000000000 
    h_3 = 0.0000000000 0.0000000000 357.1064857743 

  Metric tensor in g-space.
    h_1 = 0.1105508278 0.0000000000 0.0000000000 
    h_2 = 0.0000000000 0.1105508278 0.0000000000 
    h_3 = 0.0000000000 0.0000000000 0.1105508278 
 Particle Set 
 ------------
  Name: ion0
  Initializing the lattice by the global supercell
  All the species have the same mass 1.0000000000
  Particle set size: 1

 Particle Set 
 ------------
  Name: e
  Initializing the lattice by the global supercell
  All the species have the same mass 1.0000000000
  Particle set size: 6

WaveFunctionFactory::setInterface: intfc=0
WaveFunctionFactory::setInterface: interface=0
 Wavefunction setup: 
 ------------------- 
  Name: psi0
  Created SPOSet builder named 'interface' of type interface
Reuse SPOSetBuilder "interface" type interface
  Building SPOSet '' with '' basis set.
  TileMatrix = 
 [  1  0  0
    0  1  0
    0  0  1 ]
  Generating 4 orbitals from Quantum Espresso file.
ESPWSCFInterface::initialize().  initialized=0
 ESPWSCFInterface::initialize() commID = 1
 MPI_WORLD_COMM = 0x56457fa05380
 pwlib is initialized 
 mp_startup done

     Program PWSCF v.5.3.0 starts on 18Jul2019 at 16: 4:39 

     This program is part of the open-source Quantum ESPRESSO suite
     for quantum simulation of materials; please cite
         "P. Giannozzi et al., J. Phys.:Condens. Matter 21 395502 (2009);
          URL http://www.quantum-espresso.org", 
     in publications or presentations arising from this work. More details at
     http://www.quantum-espresso.org/quote

     Parallel version (MPI), running on     1 processors
 environment_start done
     Reading input from QMCQEPack.scf.in
     Message from routine read_cards :
     DEPRECATED: no units specified in CELL_PARAMETERS card
 input file read

     Current dimensions of program PWSCF are:
     Max number of different atomic species (ntypx) = 10
     Max number of k-points (npk) =  40000
     Max angular momentum in pseudopotentials (lmaxx) =  3
 Allocating tau now!

     IMPORTANT: XC functional enforced from input :
     Exchange-correlation      = LDA ( 1  1  0  0 0 0)
     Any further DFT definition will be discarded
     Please, verify this is what you really want

               file O.BFD.upf: wavefunction(s)  0s 0p renormalized

     Subspace diagonalization in iterative solution of the eigenvalue problem:
     a serial algorithm will be used

     Message from routine setup:
     no reason to have ecutrho>4*ecutwfc

     G-vector sticks info
     --------------------
     sticks:   dense  smooth     PW     G-vecs:    dense   smooth      PW
     Sum        2845    1129    325               113801    28671    4385

     Generating pointlists ...
     new r_m :   0.4125 (alat units)  0.4125 (a.u.) for type    1


     bravais-lattice index     =            0
     lattice parameter (alat)  =       1.0000  a.u.
     unit-cell volume          =    6748.3346 (a.u.)^3
     number of atoms/cell      =            1
     number of atomic types    =            1
     number of electrons       =         6.00 (up:   4.00, down:   2.00)
     number of Kohn-Sham states=            8
     kinetic-energy cutoff     =      10.0000  Ry
     charge density cutoff     =     100.0000  Ry
     convergence threshold     =      5.0E-03
     mixing beta               =       0.2000
     number of iterations used =            8  plain     mixing
     Exchange-correlation      = LDA ( 1  1  0  0 0 0)

     celldm(1)=   1.000000  celldm(2)=   0.000000  celldm(3)=   0.000000
     celldm(4)=   0.000000  celldm(5)=   0.000000  celldm(6)=   0.000000

     crystal axes: (cart. coord. in units of alat)
               a(1) = (  18.897261   0.000000   0.000000 )  
               a(2) = (   0.000000  18.897261   0.000000 )  
               a(3) = (   0.000000   0.000000  18.897261 )  

     reciprocal axes: (cart. coord. in units 2 pi/alat)
               b(1) = (  0.052918  0.000000  0.000000 )  
               b(2) = (  0.000000  0.052918  0.000000 )  
               b(3) = (  0.000000  0.000000  0.052918 )  


     PseudoPot. # 1 for O  read from file:
     ./O.BFD.upf
     MD5 check sum: e50a3faf6d087c8e93bb07d695ababf7
     Pseudo is Norm-conserving, Zval =  6.0
     Generated by new atomic code, or converted to UPF format
     Using radial grid of 2000 points,  1 beta functions with: 
                l(1) =   0

     atomic species   valence    mass     pseudopotential
        O              6.00    15.99900     O ( 1.00)

     Starting magnetic structure 
     atomic species   magnetization
        O            0.000

     No symmetry found



   Cartesian axes

     site n.     atom                  positions (alat units)
         1           O   tau(   1) = (   9.4486307   9.4486316   9.4486325  )

     number of k points=    32  Fermi-Dirac smearing, width (Ry)=  0.0001
                       cart. coord. in units 2pi/alat
        k(    1) = (   0.0066147   0.0066147   0.0066147), wk =   0.0312500
        k(    2) = (   0.0066147   0.0066147   0.0198441), wk =   0.0312500
        k(    3) = (   0.0066147   0.0066147  -0.0198441), wk =   0.0312500
        k(    4) = (   0.0066147   0.0066147  -0.0066147), wk =   0.0312500
        k(    5) = (   0.0066147   0.0198441   0.0066147), wk =   0.0312500
        k(    6) = (   0.0066147   0.0198441   0.0198441), wk =   0.0312500
        k(    7) = (   0.0066147   0.0198441  -0.0198441), wk =   0.0312500
        k(    8) = (   0.0066147   0.0198441  -0.0066147), wk =   0.0312500
        k(    9) = (   0.0066147  -0.0198441   0.0066147), wk =   0.0312500
        k(   10) = (   0.0066147  -0.0198441   0.0198441), wk =   0.0312500
        k(   11) = (   0.0066147  -0.0198441  -0.0198441), wk =   0.0312500
        k(   12) = (   0.0066147  -0.0198441  -0.0066147), wk =   0.0312500
        k(   13) = (   0.0066147  -0.0066147   0.0066147), wk =   0.0312500
        k(   14) = (   0.0066147  -0.0066147   0.0198441), wk =   0.0312500
        k(   15) = (   0.0066147  -0.0066147  -0.0198441), wk =   0.0312500
        k(   16) = (   0.0066147  -0.0066147  -0.0066147), wk =   0.0312500
        k(   17) = (   0.0198441   0.0066147   0.0066147), wk =   0.0312500
        k(   18) = (   0.0198441   0.0066147   0.0198441), wk =   0.0312500
        k(   19) = (   0.0198441   0.0066147  -0.0198441), wk =   0.0312500
        k(   20) = (   0.0198441   0.0066147  -0.0066147), wk =   0.0312500
        k(   21) = (   0.0198441   0.0198441   0.0066147), wk =   0.0312500
        k(   22) = (   0.0198441   0.0198441   0.0198441), wk =   0.0312500
        k(   23) = (   0.0198441   0.0198441  -0.0198441), wk =   0.0312500
        k(   24) = (   0.0198441   0.0198441  -0.0066147), wk =   0.0312500
        k(   25) = (   0.0198441  -0.0198441   0.0066147), wk =   0.0312500
        k(   26) = (   0.0198441  -0.0198441   0.0198441), wk =   0.0312500
        k(   27) = (   0.0198441  -0.0198441  -0.0198441), wk =   0.0312500
        k(   28) = (   0.0198441  -0.0198441  -0.0066147), wk =   0.0312500
        k(   29) = (   0.0198441  -0.0066147   0.0066147), wk =   0.0312500
        k(   30) = (   0.0198441  -0.0066147   0.0198441), wk =   0.0312500
        k(   31) = (   0.0198441  -0.0066147  -0.0198441), wk =   0.0312500
        k(   32) = (   0.0198441  -0.0066147  -0.0066147), wk =   0.0312500

     Dense  grid:   113801 G-vectors     FFT dimensions: (  64,  64,  64)

     Smooth grid:    28671 G-vectors     FFT dimensions: (  40,  40,  40)

     Largest allocated arrays     est. size (Mb)     dimensions
        Kohn-Sham Wavefunctions         0.44 Mb     (    3629,    8)
        NL pseudopotentials             0.06 Mb     (    3629,    1)
        Each V/rho on FFT grid          8.00 Mb     (  262144,   2)
        Each G-vector array             0.87 Mb     (  113801)
        G-vector shells                 0.01 Mb     (     756)
     Largest temporary arrays     est. size (Mb)     dimensions
        Auxiliary wavefunctions         1.77 Mb     (    3629,   32)
        Each subspace H/S matrix        0.02 Mb     (      32,   32)
        Each <psi_i|beta_j> matrix      0.00 Mb     (       1,    8)
        Arrays for rho mixing          32.00 Mb     (  262144,    8)

     Initial potential from superposition of free atoms
     Check: negative starting charge=(component1):   -0.015318
     Check: negative starting charge=(component2):   -0.015318

     starting charge    0.47747, renormalised to    6.00000

     negative rho (up, down):  1.925E-01 1.925E-01
     Starting wfc are    4 randomized atomic wfcs +    4 random wfc

     total cpu time spent up to now is        1.6 secs

     per-process dynamical memory:    84.7 Mb

     Self-consistent Calculation

     iteration #  1     ecut=    10.00 Ry     beta=0.20
     Davidson diagonalization with overlap
     ethr =  1.00E-02,  avg # of iterations =  8.8

     negative rho (up, down):  7.223E-02 1.078E-01

     total cpu time spent up to now is       11.1 secs

     total energy              =     -27.68587980 Ry
     Harris-Foulkes estimate   =     -29.10452029 Ry
     estimated scf accuracy    <       4.37100586 Ry

     total magnetization       =     2.00 Bohr mag/cell
     absolute magnetization    =     2.00 Bohr mag/cell

     iteration #  2     ecut=    10.00 Ry     beta=0.20
     Davidson diagonalization with overlap
     ethr =  1.00E-02,  avg # of iterations =  2.0

     negative rho (up, down):  5.971E-02 8.603E-02

     total cpu time spent up to now is       14.8 secs

     total energy              =     -27.90837366 Ry
     Harris-Foulkes estimate   =     -28.17596448 Ry
     estimated scf accuracy    <       0.83374107 Ry

     total magnetization       =     2.00 Bohr mag/cell
     absolute magnetization    =     2.00 Bohr mag/cell

     iteration #  3     ecut=    10.00 Ry     beta=0.20
     Davidson diagonalization with overlap
     ethr =  1.00E-02,  avg # of iterations =  1.0

     negative rho (up, down):  9.608E-02 1.140E-01

     total cpu time spent up to now is       18.0 secs

     total energy              =     -27.77925064 Ry
     Harris-Foulkes estimate   =     -27.93739779 Ry
     estimated scf accuracy    <       0.30046316 Ry

     total magnetization       =     2.00 Bohr mag/cell
     absolute magnetization    =     2.00 Bohr mag/cell

     iteration #  4     ecut=    10.00 Ry     beta=0.20
     Davidson diagonalization with overlap
     ethr =  5.01E-03,  avg # of iterations =  2.0

     negative rho (up, down):  1.104E-01 1.230E-01

     total cpu time spent up to now is       21.6 secs

     total energy              =     -27.82369279 Ry
     Harris-Foulkes estimate   =     -27.82977792 Ry
     estimated scf accuracy    <       0.03078593 Ry

     total magnetization       =     2.00 Bohr mag/cell
     absolute magnetization    =     2.00 Bohr mag/cell

     iteration #  5     ecut=    10.00 Ry     beta=0.20
     Davidson diagonalization with overlap
     ethr =  5.13E-04,  avg # of iterations =  1.3

     Magnetic moment per site:
     atom:    1    charge:    0.2127    magn:    0.0108    constr:    0.0000

     total cpu time spent up to now is       24.8 secs

     End of self-consistent calculation

 ------ SPIN UP ------------


          k = 0.0066 0.0066 0.0066 (  3629 PWs)   bands (ev):

   -38.2601  -8.4046  -8.3812  -8.3731  -1.6502  -0.5329  -0.1469  -0.1337

          k = 0.0066 0.0066 0.0198 (  3615 PWs)   bands (ev):

   -38.2523  -8.3948  -8.3755  -8.3289  -1.5387  -0.8119  -0.2006   0.0755

          k = 0.0066 0.0066-0.0198 (  3615 PWs)   bands (ev):

   -38.2523  -8.3981  -8.3765  -8.3246  -1.5383  -0.8108  -0.2073   0.0395

          k = 0.0066 0.0066-0.0066 (  3629 PWs)   bands (ev):

   -38.2601  -8.4080  -8.3968  -8.3540  -1.6497  -0.5332  -0.1403  -0.1130

          k = 0.0066 0.0198 0.0066 (  3615 PWs)   bands (ev):

   -38.2523  -8.4097  -8.3552  -8.3343  -1.5382  -0.8101  -0.2071   0.0713

          k = 0.0066 0.0198 0.0198 (  3588 PWs)   bands (ev):

   -38.2366  -8.3473  -8.3233  -8.3115  -1.4378  -0.6798  -0.5204   0.0480

          k = 0.0066 0.0198-0.0198 (  3588 PWs)   bands (ev):

   -38.2366  -8.3502  -8.3335  -8.2984  -1.4378  -0.6495  -0.5217   0.0599

          k = 0.0066 0.0198-0.0066 (  3615 PWs)   bands (ev):

   -38.2524  -8.3872  -8.3782  -8.3338  -1.5379  -0.8058  -0.2060   0.0445

          k = 0.0066-0.0198 0.0066 (  3615 PWs)   bands (ev):

   -38.2523  -8.4093  -8.3550  -8.3349  -1.5383  -0.8091  -0.1925   0.0694

          k = 0.0066-0.0198 0.0198 (  3588 PWs)   bands (ev):

   -38.2366  -8.3446  -8.3274  -8.3101  -1.4382  -0.6601  -0.5195   0.0960

          k = 0.0066-0.0198-0.0198 (  3588 PWs)   bands (ev):

   -38.2366  -8.3509  -8.3303  -8.3008  -1.4382  -0.6527  -0.5170   0.1111

          k = 0.0066-0.0198-0.0066 (  3615 PWs)   bands (ev):

   -38.2524  -8.3873  -8.3771  -8.3349  -1.5382  -0.8075  -0.1930   0.0472

          k = 0.0066-0.0066 0.0066 (  3629 PWs)   bands (ev):

   -38.2601  -8.4025  -8.3802  -8.3762  -1.6499  -0.5240  -0.1428  -0.1375

          k = 0.0066-0.0066 0.0198 (  3615 PWs)   bands (ev):

   -38.2523  -8.3987  -8.3719  -8.3285  -1.5384  -0.8147  -0.2025   0.0441

          k = 0.0066-0.0066-0.0198 (  3615 PWs)   bands (ev):

   -38.2523  -8.4019  -8.3726  -8.3246  -1.5381  -0.8108  -0.2040   0.0695

          k = 0.0066-0.0066-0.0066 (  3629 PWs)   bands (ev):

   -38.2601  -8.4083  -8.3941  -8.3563  -1.6500  -0.5334  -0.1517  -0.1429

          k = 0.0198 0.0066 0.0066 (  3615 PWs)   bands (ev):

   -38.2523  -8.3998  -8.3783  -8.3211  -1.5384  -0.8133  -0.2031   0.0517

          k = 0.0198 0.0066 0.0198 (  3588 PWs)   bands (ev):

   -38.2366  -8.3494  -8.3208  -8.3119  -1.4387  -0.6375  -0.5100   0.1192

          k = 0.0198 0.0066-0.0198 (  3588 PWs)   bands (ev):

   -38.2366  -8.3480  -8.3452  -8.2887  -1.4384  -0.6265  -0.5155   0.0322

          k = 0.0198 0.0066-0.0066 (  3615 PWs)   bands (ev):

   -38.2523  -8.4034  -8.3777  -8.3181  -1.5384  -0.8071  -0.2102   0.0766

          k = 0.0198 0.0198 0.0066 (  3588 PWs)   bands (ev):

   -38.2366  -8.3496  -8.3287  -8.3037  -1.4383  -0.6568  -0.5207   0.1319

          k = 0.0198 0.0198 0.0198 (  3614 PWs)   bands (ev):

   -38.2515  -8.3936  -8.3629  -8.3369  -1.3559  -0.4807  -0.3033  -0.2745

          k = 0.0198 0.0198-0.0198 (  3614 PWs)   bands (ev):

   -38.2515  -8.3778  -8.3667  -8.3491  -1.3559  -0.4731  -0.2840  -0.2680

          k = 0.0198 0.0198-0.0066 (  3588 PWs)   bands (ev):

   -38.2366  -8.3536  -8.3333  -8.2951  -1.4377  -0.6658  -0.5207  -0.1084

          k = 0.0198-0.0198 0.0066 (  3588 PWs)   bands (ev):

   -38.2366  -8.3488  -8.3258  -8.3075  -1.4382  -0.6058  -0.5197   0.1105

          k = 0.0198-0.0198 0.0198 (  3614 PWs)   bands (ev):

   -38.2515  -8.3957  -8.3612  -8.3366  -1.3555  -0.4134  -0.3219  -0.2677

          k = 0.0198-0.0198-0.0198 (  3614 PWs)   bands (ev):

   -38.2515  -8.3800  -8.3679  -8.3456  -1.3556  -0.4688  -0.2904  -0.2667

          k = 0.0198-0.0198-0.0066 (  3588 PWs)   bands (ev):

   -38.2366  -8.3536  -8.3302  -8.2982  -1.4385  -0.6529  -0.5168   0.1090

          k = 0.0198-0.0066 0.0066 (  3615 PWs)   bands (ev):

   -38.2523  -8.3995  -8.3777  -8.3220  -1.5380  -0.8078  -0.2028   0.0794

          k = 0.0198-0.0066 0.0198 (  3588 PWs)   bands (ev):

   -38.2366  -8.3481  -8.3209  -8.3130  -1.4379  -0.6290  -0.5173   0.1023

          k = 0.0198-0.0066-0.0198 (  3588 PWs)   bands (ev):

   -38.2366  -8.3480  -8.3442  -8.2898  -1.4375  -0.6635  -0.5174  -0.0061

          k = 0.0198-0.0066-0.0066 (  3615 PWs)   bands (ev):

   -38.2523  -8.4026  -8.3782  -8.3183  -1.5380  -0.8099  -0.1884   0.0859

 ------ SPIN DOWN ----------


          k = 0.0066 0.0066 0.0066 (  3629 PWs)   bands (ev):

   -36.3645  -6.4929  -6.4905  -6.4653  -1.4773  -0.3822  -0.1170  -0.1094

          k = 0.0066 0.0066 0.0198 (  3615 PWs)   bands (ev):

   -36.3562  -6.4932  -6.4700  -6.4290  -1.3274  -0.7617  -0.1058   0.1304

          k = 0.0066 0.0066-0.0198 (  3615 PWs)   bands (ev):

   -36.3562  -6.4928  -6.4700  -6.4294  -1.3275  -0.7625  -0.1056   0.1231

          k = 0.0066 0.0066-0.0066 (  3629 PWs)   bands (ev):

   -36.3645  -6.4914  -6.4901  -6.4671  -1.4783  -0.3902  -0.1151  -0.1025

          k = 0.0066 0.0198 0.0066 (  3615 PWs)   bands (ev):

   -36.3562  -6.4916  -6.4717  -6.4288  -1.3268  -0.7612  -0.0976   0.1508

          k = 0.0066 0.0198 0.0198 (  3588 PWs)   bands (ev):

   -36.3394  -6.4427  -6.4317  -6.4066  -1.1840  -0.5952  -0.4921   0.0113

          k = 0.0066 0.0198-0.0198 (  3588 PWs)   bands (ev):

   -36.3394  -6.4420  -6.4317  -6.4075  -1.1843  -0.5824  -0.4854   0.1790

          k = 0.0066 0.0198-0.0066 (  3615 PWs)   bands (ev):

   -36.3562  -6.4943  -6.4690  -6.4288  -1.3273  -0.7553  -0.0967   0.1059

          k = 0.0066-0.0198 0.0066 (  3615 PWs)   bands (ev):

   -36.3562  -6.4917  -6.4717  -6.4288  -1.3269  -0.7616  -0.1007   0.1219

          k = 0.0066-0.0198 0.0198 (  3588 PWs)   bands (ev):

   -36.3394  -6.4428  -6.4317  -6.4066  -1.1851  -0.6423  -0.4888  -0.1235

          k = 0.0066-0.0198-0.0198 (  3588 PWs)   bands (ev):

   -36.3394  -6.4422  -6.4317  -6.4073  -1.1848  -0.5958  -0.4841   0.1690

          k = 0.0066-0.0198-0.0066 (  3615 PWs)   bands (ev):

   -36.3562  -6.4943  -6.4690  -6.4289  -1.3269  -0.7536  -0.0894   0.0891

          k = 0.0066-0.0066 0.0066 (  3629 PWs)   bands (ev):

   -36.3645  -6.4929  -6.4906  -6.4652  -1.4776  -0.3886  -0.1127  -0.0950

          k = 0.0066-0.0066 0.0198 (  3615 PWs)   bands (ev):

   -36.3562  -6.4928  -6.4703  -6.4290  -1.3265  -0.7626  -0.0857   0.0929

          k = 0.0066-0.0066-0.0198 (  3615 PWs)   bands (ev):

   -36.3562  -6.4925  -6.4703  -6.4294  -1.3276  -0.7591  -0.1054   0.0783

          k = 0.0066-0.0066-0.0066 (  3629 PWs)   bands (ev):

   -36.3645  -6.4917  -6.4901  -6.4669  -1.4777  -0.3816  -0.1190  -0.1055

          k = 0.0198 0.0066 0.0066 (  3615 PWs)   bands (ev):

   -36.3562  -6.4926  -6.4698  -6.4298  -1.3276  -0.7613  -0.1057   0.0726

          k = 0.0198 0.0066 0.0198 (  3588 PWs)   bands (ev):

   -36.3394  -6.4413  -6.4337  -6.4062  -1.1839  -0.5673  -0.4894   0.1785

          k = 0.0198 0.0066-0.0198 (  3588 PWs)   bands (ev):

   -36.3394  -6.4414  -6.4309  -6.4088  -1.1847  -0.6236  -0.4827   0.0921

          k = 0.0198 0.0066-0.0066 (  3615 PWs)   bands (ev):

   -36.3562  -6.4923  -6.4698  -6.4301  -1.3271  -0.7587  -0.1009   0.0983

          k = 0.0198 0.0198 0.0066 (  3588 PWs)   bands (ev):

   -36.3394  -6.4423  -6.4319  -6.4070  -1.1847  -0.5985  -0.4892   0.1558

          k = 0.0198 0.0198 0.0198 (  3614 PWs)   bands (ev):

   -36.3553  -6.4801  -6.4542  -6.4519  -1.0545  -0.3845  -0.2619  -0.2116

          k = 0.0198 0.0198-0.0198 (  3614 PWs)   bands (ev):

   -36.3553  -6.4819  -6.4529  -6.4517  -1.0573  -0.4321  -0.2530  -0.2306

          k = 0.0198 0.0198-0.0066 (  3588 PWs)   bands (ev):

   -36.3394  -6.4413  -6.4319  -6.4078  -1.1846  -0.6330  -0.4872   0.0490

          k = 0.0198-0.0198 0.0066 (  3588 PWs)   bands (ev):

   -36.3394  -6.4420  -6.4322  -6.4068  -1.1848  -0.6172  -0.4874  -0.1189

          k = 0.0198-0.0198 0.0198 (  3614 PWs)   bands (ev):

   -36.3553  -6.4799  -6.4542  -6.4520  -1.0567  -0.3964  -0.2530  -0.1907

          k = 0.0198-0.0198-0.0198 (  3614 PWs)   bands (ev):

   -36.3553  -6.4817  -6.4530  -6.4515  -1.0559  -0.3770  -0.2702  -0.2024

          k = 0.0198-0.0198-0.0066 (  3588 PWs)   bands (ev):

   -36.3394  -6.4412  -6.4323  -6.4076  -1.1856  -0.6276  -0.4896   0.0073

          k = 0.0198-0.0066 0.0066 (  3615 PWs)   bands (ev):

   -36.3562  -6.4927  -6.4698  -6.4297  -1.3272  -0.7644  -0.0954   0.1250

          k = 0.0198-0.0066 0.0198 (  3588 PWs)   bands (ev):

   -36.3394  -6.4413  -6.4337  -6.4061  -1.1851  -0.6123  -0.4857   0.0320

          k = 0.0198-0.0066-0.0198 (  3588 PWs)   bands (ev):

   -36.3394  -6.4416  -6.4310  -6.4087  -1.1848  -0.5825  -0.4904   0.1847

          k = 0.0198-0.0066-0.0066 (  3615 PWs)   bands (ev):

   -36.3562  -6.4923  -6.4698  -6.4301  -1.3272  -0.7604  -0.0896   0.1315

     the spin up/dw Fermi energies are    -4.6188   -6.4693 ev

!    total energy              =     -27.82643071 Ry
     Harris-Foulkes estimate   =     -27.82467444 Ry
     estimated scf accuracy    <       0.00335614 Ry

     The total energy is the sum of the following terms:

     one-electron contribution =     -33.77970590 Ry
     hartree contribution      =      16.59484518 Ry
     xc contribution           =      -5.23638323 Ry
     ewald contribution        =      -5.40515940 Ry
     smearing contrib. (-TS)   =      -0.00002736 Ry

     total magnetization       =     2.00 Bohr mag/cell
     absolute magnetization    =     2.00 Bohr mag/cell

     convergence has been achieved in   5 iterations
  USING PWINTERFACE:  PW version 5.1.3   Lattice = 
    [ 18.897261  0.000000  0.000000
       0.000000 18.897261  0.000000
       0.000000  0.000000 18.897261 ]
  SuperLattice = 
    [ 18.897261  0.000000  0.000000
       0.000000 18.897261  0.000000
       0.000000  0.000000 18.897261 ]
bands=8, elecs=6, spins=2, twists=32, muffin tins=0, core states=0
atomic orbital=0
Species ID's
In ESPWSCFInterface::getSpeciesIDs; number of atoms:	1, number of species:	1
After pwlib_getatom_data_; number of atoms:	1, number of species:	1
atom 0  species 0
#Species: 1
speciesids: 0
Get Atomic Numbers...  In getAtomicNumbers, checking nat and nsp (as above)	1   1
Initialized arrays before pwlib_getspecies_data_	1 -1  -0.5000000000 3 p
After pwlib_getspecies_data_:	1 6  15.9990000000 8 O
Done!
speciesids: 0	8
get Ion Positions
0	9.4486306700	9.4486316100	9.4486325500
calling getwfn_kpoints... I have 32 kpoints
Done!
   Skip initialization of the density
Found 32 distinct supercell twists.
number of things
32
0
Super twist #0:  [   0.12500   0.12500   0.12500 ]
Super twist #1:  [   0.12500   0.12500   0.37500 ]
Super twist #2:  [   0.12500   0.12500  -0.37500 ]
Super twist #3:  [   0.12500   0.12500  -0.12500 ]
Super twist #4:  [   0.12500   0.37500   0.12500 ]
Super twist #5:  [   0.12500   0.37500   0.37500 ]
Super twist #6:  [   0.12500   0.37500  -0.37500 ]
Super twist #7:  [   0.12500   0.37500  -0.12500 ]
Super twist #8:  [   0.12500  -0.37500   0.12500 ]
Super twist #9:  [   0.12500  -0.37500   0.37500 ]
Super twist #10:  [   0.12500  -0.37500  -0.37500 ]
Super twist #11:  [   0.12500  -0.37500  -0.12500 ]
Super twist #12:  [   0.12500  -0.12500   0.12500 ]
Super twist #13:  [   0.12500  -0.12500   0.37500 ]
Super twist #14:  [   0.12500  -0.12500  -0.37500 ]
Super twist #15:  [   0.12500  -0.12500  -0.12500 ]
Super twist #16:  [   0.37500   0.12500   0.12500 ]
Super twist #17:  [   0.37500   0.12500   0.37500 ]
Super twist #18:  [   0.37500   0.12500  -0.37500 ]
Super twist #19:  [   0.37500   0.12500  -0.12500 ]
Super twist #20:  [   0.37500   0.37500   0.12500 ]
Super twist #21:  [   0.37500   0.37500   0.37500 ]
Super twist #22:  [   0.37500   0.37500  -0.37500 ]
Super twist #23:  [   0.37500   0.37500  -0.12500 ]
Super twist #24:  [   0.37500  -0.37500   0.12500 ]
Super twist #25:  [   0.37500  -0.37500   0.37500 ]
Super twist #26:  [   0.37500  -0.37500  -0.37500 ]
Super twist #27:  [   0.37500  -0.37500  -0.12500 ]
Super twist #28:  [   0.37500  -0.12500   0.12500 ]
Super twist #29:  [   0.37500  -0.12500   0.37500 ]
Super twist #30:  [   0.37500  -0.12500  -0.37500 ]
Super twist #31:  [   0.37500  -0.12500  -0.12500 ]
  Using supercell twist 0:  [   0.12500   0.12500   0.12500]
DistincTwists.size()=1 in OccupyBandsInterface
 spin=0 sortBands=1 numOrbs=4
Doop
DistinctTwist[ti]=0 0
Sorting the bands now:
We will read 4 distinct orbitals.
There are 0 core states and 4 valence states.
BandInfoGroup::selectBands bigspace has 8 distinct orbitals 
BandInfoGroup::selectBands using distinct orbitals [0,4)
  Number of distinct bands 4
  First Band index 0
  First SPO index 0
  Size of SPOs 4
  AdoptorName = SplineC2CSoAAdoptor
  Using complex einspline table
  Can use SoA implementation for mGL
NumDistinctOrbitals 4 numOrbs = 4
  PWSCF::Version                  0                 0                 0
  Assumes distinct Gvecs set for different twists. Regenerate orbital files using updated QE.
B-spline mesh factor is 1.0000000000
B-spline mesh size is (36, 36, 36)
Maxmimum number of Gvecs 4135
  Using meshsize=                36                36                36
  vs input meshsize=                36                36                36
MEMORY 3 MB allocated for the coefficients in 3D spline orbital representation
Start transforming plane waves to 3D B-Splines.
Made it into ESPWSSCF Interface. 4135 0 0 0
ngtot=4135
The complex coefficient cG[0] is 	(0.0756926229,0.0242214868)
Made it into ESPWSSCF Interface. 4135 0 1 0
ngtot=4135
The complex coefficient cG[0] is 	(-0.0038192592,-0.0005626457)
Made it into ESPWSSCF Interface. 4135 0 2 0
ngtot=4135
The complex coefficient cG[0] is 	(-0.0105981902,0.0125918645)
Made it into ESPWSSCF Interface. 4135 0 3 0
ngtot=4135
The complex coefficient cG[0] is 	(0.0064915569,0.0173502071)
  SplineAdoptorReader initialize_spline_pio 0.0210142030 sec
Time spent in creating B-spline SPOs 0.0224968190sec
Reuse SPOSetBuilder "interface" type interface
  Building SPOSet '' with '' basis set.
DistincTwists.size()=1 in OccupyBandsInterface
 spin=1 sortBands=1 numOrbs=2
Doop
DistinctTwist[ti]=0 0
Sorting the bands now:
We will read 2 distinct orbitals.
There are 0 core states and 2 valence states.
BandInfoGroup::selectBands bigspace has 8 distinct orbitals 
BandInfoGroup::selectBands using distinct orbitals [0,2)
  Number of distinct bands 2
  First Band index 0
  First SPO index 0
  Size of SPOs 2
  AdoptorName = SplineC2CSoAAdoptor
  Using complex einspline table
  Can use SoA implementation for mGL
NumDistinctOrbitals 2 numOrbs = 2
  PWSCF::Version                  0                 0                 0
  Assumes distinct Gvecs set for different twists. Regenerate orbital files using updated QE.
B-spline mesh factor is 1.0000000000
B-spline mesh size is (36, 36, 36)
Maxmimum number of Gvecs 4135
  Using meshsize=                36                36                36
  vs input meshsize=                36                36                36
MEMORY 1 MB allocated for the coefficients in 3D spline orbital representation
Start transforming plane waves to 3D B-Splines.
Made it into ESPWSSCF Interface. 4135 1 0 0
ngtot=4135
The complex coefficient cG[0] is 	(-0.0768908015,0.0211118466)
Made it into ESPWSSCF Interface. 4135 1 1 0
ngtot=4135
The complex coefficient cG[0] is 	(0.0000423013,0.0004003086)
  SplineAdoptorReader initialize_spline_pio 0.0098977520 sec
Time spent in creating B-spline SPOs 0.0104701560sec
  Creating a determinant updet group=0 sposet=updet
  Reusing a SPO set updet
Using DiracDeterminant with DelayedUpdate engine
Using rank-1 Sherman-Morrison Fahy update

  Creating a determinant downdet group=1 sposet=downdet
  Reusing a SPO set downdet
Using DiracDeterminant with DelayedUpdate engine
Using rank-1 Sherman-Morrison Fahy update

  FermionWF = SlaterDet

   Jastrow
   -------
    Name: J2   Type: Two-Body   Function: Bspline

    Radial function for species: u - u
     Number of parameters: 8
     Cusp: -0.2500000000
     Cutoff radius: 10.0000000000

     Name                        Value Type Recompute Use Index
     ---- ---------------------------- ---- --------- --- -----
     uu_0  (0.000000e+00,0.000000e+00)    1         1  ON     0
     uu_1  (0.000000e+00,0.000000e+00)    1         1  ON     1
     uu_2  (0.000000e+00,0.000000e+00)    1         1  ON     2
     uu_3  (0.000000e+00,0.000000e+00)    1         1  ON     3
     uu_4  (0.000000e+00,0.000000e+00)    1         1  ON     4
     uu_5  (0.000000e+00,0.000000e+00)    1         1  ON     5
     uu_6  (0.000000e+00,0.000000e+00)    1         1  ON     6
     uu_7  (0.000000e+00,0.000000e+00)    1         1  ON     7

    Radial function for species: u - d
     Number of parameters: 8
     Cusp: -0.5
     Cutoff radius: 10

     Name                        Value Type Recompute Use Index
     ---- ---------------------------- ---- --------- --- -----
     ud_0  (0.000000e+00,0.000000e+00)    1         1  ON     0
     ud_1  (0.000000e+00,0.000000e+00)    1         1  ON     1
     ud_2  (0.000000e+00,0.000000e+00)    1         1  ON     2
     ud_3  (0.000000e+00,0.000000e+00)    1         1  ON     3
     ud_4  (0.000000e+00,0.000000e+00)    1         1  ON     4
     ud_5  (0.000000e+00,0.000000e+00)    1         1  ON     5
     ud_6  (0.000000e+00,0.000000e+00)    1         1  ON     6
     ud_7  (0.000000e+00,0.000000e+00)    1         1  ON     7


   Jastrow
   -------
    Name: J1   Type: One-Body   Function: Bspline

    Radial function for element: O
     Number of parameters: 8
     Cusp: 0
     Cutoff radius: 5

     Name                        Value Type Recompute Use Index
     ---- ---------------------------- ---- --------- --- -----
     eO_0  (0.000000e+00,0.000000e+00)    1         1  ON     0
     eO_1  (0.000000e+00,0.000000e+00)    1         1  ON     1
     eO_2  (0.000000e+00,0.000000e+00)    1         1  ON     2
     eO_3  (0.000000e+00,0.000000e+00)    1         1  ON     3
     eO_4  (0.000000e+00,0.000000e+00)    1         1  ON     4
     eO_5  (0.000000e+00,0.000000e+00)    1         1  ON     5
     eO_6  (0.000000e+00,0.000000e+00)    1         1  ON     6
     eO_7  (0.000000e+00,0.000000e+00)    1         1  ON     7

  QMCHamiltonian::addOperator Kinetic to H, physical Hamiltonian 
  QMCHamiltonian::addOperator ElecElec to H, physical Hamiltonian 
QMCHamiltonian::addOperatorType added type coulomb named ElecElec
  CoulombAA for ion0 is not created.  Number of particles == 1 and nonPeriodic

  ECPotential builder for pseudopotential 

  Adding pseudopotential for O
   Linear grid  ri=0 rf=10 npts = 10001
    ECPComponentBuilder::buildSemiLocalAndLocal 
    Assuming Hartree unit
   Number of angular momentum channels 2
   Maximum angular momentum channel 1
   Creating a Linear Grid Rmax=1.31
  Using global grid with delta = 0.001
   Making L=1 a local potential with a radial cutoff of 9.999
    Non-local pseudopotential parameters
    Maximum angular mementum = 0
    Number of non-local channels = 1
       l(0)=0
    Cutoff radius = 1.31
    Spherical grids and weights: 
                        1                 0                 0       0.08333333333
                       -1   1.224646799e-16                 0       0.08333333333
             0.4472135955       0.894427191                 0       0.08333333333
            -0.4472135955      0.7236067977      0.5257311121       0.08333333333
             0.4472135955      0.2763932023      0.8506508084       0.08333333333
            -0.4472135955     -0.2763932023      0.8506508084       0.08333333333
             0.4472135955     -0.7236067977      0.5257311121       0.08333333333
            -0.4472135955      -0.894427191   1.095357397e-16       0.08333333333
             0.4472135955     -0.7236067977     -0.5257311121       0.08333333333
            -0.4472135955     -0.2763932023     -0.8506508084       0.08333333333
             0.4472135955      0.2763932023     -0.8506508084       0.08333333333
            -0.4472135955      0.7236067977     -0.5257311121       0.08333333333
    Maximum cutoff radius 1.31
  QMCHamiltonian::addOperator LocalECP to H, physical Hamiltonian 

  Using NonLocalECP potential 
    Maximum grid on a sphere for NonLocalECPotential: 12
  QMCHamiltonian::addOperator NonLocalECP to H, physical Hamiltonian 
QMCHamiltonian::addOperatorType added type pseudo named PseudoPot

  QMCHamiltonian::add2WalkerProperty added
    4 to P::PropertyList 
    0 to P::Collectables 
    starting Index of the observables in P::PropertyList = 9
ParticleSetPool::randomize 
<init source="ion0" target="e">
</init>
  Initialization Execution time = 25.05 secs
=========================================================
 Summary of QMC systems 
=========================================================
ParticleSetPool has: 

  ParticleSet 'e' contains 6 particles :  u(4) d(2)

    u  9.5178770121e+00  9.9316799290e+00  8.5537559934e+00
    u  1.1382660664e+01  1.0751988798e+01  9.2691733692e+00
    u  7.5608675299e+00  9.9895622235e+00  8.2424258160e+00
    u  1.2609923843e+01  9.3160579269e+00  1.0965938405e+01
    d  1.0683722381e+01  1.0197444230e+01  9.0344809203e+00
    d  9.6784444489e+00  1.0412158436e+01  9.5452762966e+00

  Distance table for dissimilar particles (A-B):
    source: ion0  target: e
    Using structure-of-arrays (SoA) data layout
    Distance computations use open boundary conditions in 3D.

  Distance table for similar particles (A-A):
    source/target: e
    Using structure-of-arrays (SoA) data layout
    Distance computations use open boundary conditions in 3D.


  ParticleSet 'ion0' contains 1 particles :  O(1)

    O  9.4486306700e+00  9.4486316100e+00  9.4486325500e+00

  Distance table for similar particles (A-A):
    source/target: ion0
    Using structure-of-arrays (SoA) data layout
    Distance computations use open boundary conditions in 3D.


  Hamiltonian h0
  Kinetic         Kinetic energy
  ElecElec        CoulombAB source=e

  LocalECP        LocalECPotential: ion0
  NonLocalECP     NonLocalECPotential: ion0


=========================================================
  Start VMC
  File Root test_O.s000 append = no 
=========================================================
  Adding 4 walkers to 0 existing sets
  Total number of walkers: 4.0000000000e+00
  Total weight: 4.0000000000e+00
  Resetting Properties of the walkers 1 x 13

<vmc function="put">
  qmc_counter=0  my_counter=0
  time step      = 3.0000000000e-01
  blocks         = 2000
  steps          = 200
  substeps       = 1
  current        = 0
  target samples = 0.0000000000e+00
  walkers/mpi    = 4

  stepsbetweensamples = 400200
<parameter name="blocks" condition="int">2000</parameter>
<parameter name="blocks_between_recompute" condition="int">0</parameter>
<parameter name="check_properties" condition="int">100</parameter>
<parameter name="checkproperties" condition="int">100</parameter>
<parameter name="current" condition="int">0</parameter>
<parameter name="dmcwalkersperthread" condition="real">0.0000000000e+00</parameter>
<parameter name="maxcpusecs" condition="real">3.6000000000e+05</parameter>
<parameter name="record_configs" condition="int">0</parameter>
<parameter name="record_walkers" condition="int">400200</parameter>
<parameter name="recordconfigs" condition="int">0</parameter>
<parameter name="recordwalkers" condition="int">400200</parameter>
<parameter name="rewind" condition="int">0</parameter>
<parameter name="samples" condition="real">0.0000000000e+00</parameter>
<parameter name="samplesperthread" condition="real">0.0000000000e+00</parameter>
<parameter name="steps" condition="int">200</parameter>
<parameter name="stepsbetweensamples" condition="int">400200</parameter>
<parameter name="store_configs" condition="int">0</parameter>
<parameter name="storeconfigs" condition="int">0</parameter>
<parameter name="sub_steps" condition="int">1</parameter>
<parameter name="substeps" condition="int">1</parameter>
<parameter name="tau" condition="au">3.0000000000e-01</parameter>
<parameter name="time_step" condition="au">3.0000000000e-01</parameter>
<parameter name="timestep" condition="au">3.0000000000e-01</parameter>
<parameter name="use_drift" condition="string">no</parameter>
<parameter name="usedrift" condition="string">no</parameter>
<parameter name="walkers" condition="int">4</parameter>
<parameter name="warmup_steps" condition="int">50</parameter>
<parameter name="warmupsteps" condition="int">50</parameter>
  DumpConfig==false Nothing (configurations, state) will be saved.
  Walker Samples are dumped every 400200 steps.
</vmc>
  Set drift_modifier UNR parameter a = 1.0000000000e+00
  Adding a default LocalEnergyEstimator for the MainEstimator 
  CloneManager::makeClones makes 4 clones for W/Psi/H.
  Cloning methods for both Psi and H are used
===== Memory Usage before cloning =====
Available memory on node 0, free + buffers : 2064 MB
Memory footprint by rank 0 on node 0       : 132 MB
==================================================
===== Memory Usage after cloning =====
Available memory on node 0, free + buffers : 2064 MB
Memory footprint by rank 0 on node 0       : 133 MB
==================================================
  Initial partition of walkers 0 1 2 3 4 

  Using Particle by Particle moves
  Walker moves without drift
  Total Sample Size   =0
  Walker distribution on root = 0 1 2 3 4 
  Using Locality Approximation
===== Memory Usage after the buffer registration =====
Available memory on node 0, free + buffers : 2063 MB
Memory footprint by rank 0 on node 0       : 133 MB
==================================================
  Anonymous Buffer size per walker : 2976 Bytes.
MEMORY increase 0 MB VMC::resetRun
====================================================
  SimpleFixedNodeBranch::finalize after a VMC block
    QMC counter        = 0
    time step          = 0.3
    reference energy   = -13.8658
    reference variance = 0.96532
====================================================
  QMC Execution time = 6.6914e+01 secs
  Total Execution time = 6.6915e+01 secs

=========================================================
  A new xml input file : test_O.s000.cont.xml

     Writing output data file O.save
 b4 getwfn_info...
 rank =            0
 nktot =           32
 ----------------
 ngtot =         4135
 npw   =         3615
 npwx  =         3629
 ----------------
 asdasda   6.0000000000000000        15.999000000000001                8 O  
